<?xml version="1.0"?>
<VTKFile type="PolyData" version="0.1" byte_order="LittleEndian" header_type="UInt32" compressor="vtkZLibDataCompressor">
  <PolyData>
    <Piece NumberOfPoints="105" NumberOfVerts="0" NumberOfLines="0" NumberOfStrips="0" NumberOfPolys="80">
      <PointData>
        <DataArray type="Float32" Name="Displacements" NumberOfComponents="3" ComponentName0="Desl-X" ComponentName1="Desl-Y" ComponentName2="Z-Displacements" format="ascii" RangeMin="0" RangeMax="0.0027415968149">
          0 0 0 0.0017493900377 0.0018754500197 0
          -0.002671259921 0.00061702798121 0 0 0 0
          -0.00020392599981 -9.2631496955e-05 0 -0.00043472799007 -0.00015801499831 0
          -0.000693820999 -0.00018008699408 0 -0.00089826097246 -0.00019895800506 0
          -0.00099232594948 -0.00021468299383 0 -0.0010500400094 -2.0411400328e-05 0
          -0.00119970995 0.00031837800634 0 -0.0013830399839 0.00018478500715 0
          -0.0013298500562 -0.00044150798931 0 -0.00078131101327 -0.0010723499581 0
          0.00012364299619 -0.0012449399801 0 0.00084430398419 -0.00062680302653 0
          0.001085959957 0.00033574699773 0 0.00084081100067 0.00097322702641 0
          0.00032096498762 0.00087178102694 0 -1.9870600227e-05 0.00020667999343 0
          0.00012512800458 -0.00047916200128 0 0.00073760002851 -0.0004781059979 0
          0.001423759968 0.00042901100824 0 0.00024033899535 0.0017010200536 0
          -0.0011767400429 0.0012646500254 0 -0.0020756700542 0.00079600699246 0
          -0.0024874100927 4.0491999243e-05 0 -0.001946680015 -0.00023369900009 0
          -0.0012324800482 0.00011155100219 0 -0.00081288599176 0.00088156899437 0
          -0.00091010599863 0.001388130011 0 -0.0012546000071 0.001255040057 0
          -0.0014005899429 0.00033712800359 0 -0.0011401999509 -0.00079711398575 0
          -0.00056854600552 -0.001367860008 0 3.2095998904e-05 -0.0012282800162 0
          0.00028137900517 -0.00071315001696 0 0.00016510799469 -0.00020694700652 0
          -0.00011988000188 0.00015564600471 0 -0.00044803399942 0.00013486199896 0
          -0.00058168399846 -2.9113500204e-05 0 -0.00053399597527 -2.534539999e-05 0
          -0.00043593198643 4.1772000259e-05 0 -0.00027605399373 6.3635401602e-05 0
          -0.00011461599934 4.9390298955e-05 0 0 0 0
          0 0 0 0 0 0
          -0.0001626519952 -4.4300501031e-05 0 -0.00013594099437 -1.0380699678e-05 0
          -0.0001116170024 1.6682799469e-05 0 -0.00039030000335 -9.9130898889e-05 0
          -0.00033220500336 -4.6390199714e-05 0 -0.00029758698656 7.8068696894e-06 0
          -0.00063891900936 -0.00011977500253 0 -0.00054782599909 -5.7872501202e-05 0
          -0.00049129500985 -4.5367099233e-07 0 -0.00083363801241 -0.00013168799342 0
          -0.00070311600575 -5.8223598899e-05 0 -0.00059702101862 -3.259280129e-05 0
          -0.0009837159887 -0.00015336999786 0 -0.00081874697935 -5.186260023e-05 0
          -0.00059345399495 -1.7192900486e-05 0 -0.0011225600028 2.9733799238e-05 0
          -0.00088509800844 0.00011588999769 0 -0.00052398699336 0.00016770999355 0
          -0.0011662000325 0.00033538500429 0 -0.00082767801359 0.00027185998624 0
          -0.00039312400622 0.00020443099493 0 -0.0010589299491 0.00012054899707 0
          -0.00065038900357 -2.8213300538e-05 0 -0.0002417939977 -0.00013834799756 0
          -0.00080020702444 -0.0005565219908 0 -0.00047351000831 -0.00067506701453 0
          -0.00018031199579 -0.00071154098259 0 -0.00045405499986 -0.0012084499467 0
          -0.00034860699088 -0.0012625099625 0 -0.00023421499645 -0.0012878900161 0
          -9.9727003544e-05 -0.0013837700244 0 -0.00024995600688 -0.0014101599809 0
          -0.00034728599712 -0.0014312999556 0 0.00022831799288 -0.00070961099118 0
          -0.000101575999 -0.00080207502469 0 -0.00047625499428 -0.00085838901578 0
          0.00046088101226 0.00029165600426 0 1.6536800103e-05 0.000253161008 0
          -0.00057711801492 0.0002909929899 0 0.00048429699382 0.0010025900556 0
          -3.6246601667e-05 0.0010581499664 0 -0.00066143198637 0.0012170899427 0
          0.00033654700383 0.00097950396594 0 -0.00024603700149 0.0011173499515 0
          -0.00078932201723 0.0013169000158 0 9.9858298199e-05 0.00029893300962 0
          -0.00050933600869 0.00051506701857 0 -0.00099744100589 0.0007552219904 0
          -5.7375600591e-05 -0.00042589800432 0 -0.00081757997395 -0.00023802599753 0
          -0.0013735699467 -5.1678798627e-05 0 -4.9199901696e-05 -0.00055219000205 0
          -0.0010945099639 -0.00046171201393 0 -0.0017666999483 -0.00036698600161 0
          0.00010271900101 0.00028698999085 0 -0.0012124499772 0.0001562940015 0
          -0.0020536100492 3.8171998312e-05 0
        </DataArray>
      </PointData>
      <CellData>
        <DataArray type="Float32" Name="IntStresses" NumberOfComponents="9" ComponentName0="Sxx-IntStresses" ComponentName1="Syy-IntStresses" ComponentName2="Szz-IntStresses" ComponentName3="Sxy-IntStresses" ComponentName4="Syz-IntStresses" ComponentName5="Sxz-IntStresses" ComponentName6="c-I" ComponentName7="c-II" ComponentName8="c-III" format="ascii" RangeMin="0.18202935843" RangeMax="3.7578215194">
          -0.78776526451 -0.096251733601 -0.079715155065 0 0 0
          -0.066908046603 -0.10905883461 -0.78776526451 -0.64469474554 -0.090507283807 -0.023308813572
          0 0 0 -0.023308813572 -0.090507283807 -0.64469474554
          -0.53509438038 -0.077391453087 0.025521460921 0 0 0
          0.025521460921 -0.077391453087 -0.53509438038 -0.48456919193 -0.05300167948 0.052562221885
          0 0 0 0.052562221885 -0.05300167948 -0.48456919193
          -0.95921623707 -0.016438852996 -0.028760243207 0 0 0
          -0.015497120097 -0.029701976106 -0.95921623707 -0.89388233423 -0.042927742004 -0.0050279595889
          0 0 0 -0.0050279595889 -0.042927742004 -0.89388233423
          -0.80426245928 -0.031772952527 0.011713180691 0 0 0
          0.011713180691 -0.031772952527 -0.80426245928 -0.72283041477 0.0037424834445 0.019920168445
          0 0 0 0.021155033261 0.0025076186284 -0.72283041477
          -1.0620284081 -0.01718153432 0.04717733711 0 0 0
          0.04717733711 -0.01718153432 -1.0620284081 -0.96795427799 -0.0031480249017 0.097552023828
          0 0 0 0.097552023828 -0.0031480249017 -0.96795427799
          -0.84761124849 0.020630318671 0.05950473249 0 0 0
          0.05950473249 0.020630318671 -0.84761124849 -0.73127174377 0.021461794153 0.038976978511
          0 0 0 0.047379270196 0.013059502468 -0.73127174377
          -0.81614243984 0.06176007539 0.073951736093 0 0 0
          0.073951736093 0.06176007539 -0.81614243984 -0.70259511471 0.10636541247 0.17446005344
          0 0 0 0.17446005344 0.10636541247 -0.70259511471
          -0.53389942646 0.03954526037 0.10844647884 0 0 0
          0.11517672241 0.032815013081 -0.53389942646 -0.42538362741 -0.0032770046964 0.015943162143
          0 0 0 0.03061497584 -0.017948817462 -0.42538362741
          -0.47110384703 0.1501057893 0.029854847118 0 0 0
          0.1501057893 0.029854847118 -0.47110384703 -0.4932577908 0.24120852351 0.23347480595
          0 0 0 0.24704456329 0.22763875127 -0.4932577908
          -0.21552973986 0.071743801236 0.29429084063 0 0 0
          0.29429084063 0.071743801236 -0.21552973986 -0.1006423384 -0.034896660596 0.072022497654
          0 0 0 0.072022497654 -0.034391820431 -0.10114718229
          -0.37488758564 0.13848334551 0.26121887565 0 0 0
          0.26121887565 0.13848334551 -0.37488758564 -0.35174006224 0.30302989483 0.62774282694
          0 0 0 0.62774282694 0.30302989483 -0.35174006224
          0.054974772036 0.19393062592 0.78254950047 0 0 0
          0.78254950047 0.19598996639 0.052915431559 0.4264998734 0.013357833028 0.36383476853
          0 0 0 0.44333562255 0.34699901938 0.013357833028
          -0.39225971699 0.041834715754 0.50452166796 0 0 0
          0.50452166796 0.041834715754 -0.39225971699 0.043200515211 0.057948265225 0.86467623711
          0 0 0 0.86467623711 0.12258981168 -0.021441031247
          0.40973651409 0.069915525615 0.82363003492 0 0 0
          0.82363003492 0.40973651409 0.069915525615 0.97468864918 0.073603644967 0.33891797066
          0 0 0 0.97468864918 0.33891797066 0.073603644967
          -0.19524621964 -0.14720591903 0.0076587665826 0 0 0
          0.11217372864 -0.080551683903 -0.36641541123 0.51442986727 -0.3136575222 0.19345997274
          0 0 0 0.51442986727 0.19345997274 -0.3136575222
          0.63161712885 -0.2120193243 0.1669139713 0 0 0
          0.63161712885 0.1669139713 -0.2120193243 0.90438002348 -0.018456824124 -0.021020883694
          0 0 0 0.90438002348 0.025125229731 -0.064602933824
          0.59355032444 -0.22504925728 -0.3746753335 0 0 0
          0.59355032444 -0.19885930419 -0.40086525679 0.81948935986 -0.35201823711 -0.49057537317
          0 0 0 0.81948935986 -0.35201823711 -0.49057537317
          0.44824197888 -0.19337379932 -0.43187862635 0 0 0
          0.44824197888 -0.19337379932 -0.43187862635 0.35600185394 -0.05726731196 -0.17566947639
          0 0 0 0.35600185394 -0.05726731196 -0.17566947639
          1.8486859798 -0.060994774103 -0.35489240289 0 0 0
          1.8486859798 -0.060994774103 -0.35489240289 0.95089751482 -0.12187425792 -0.67269361019
          0 0 0 0.95089751482 -0.12187425792 -0.67269361019
          0.12341699004 -0.097999848425 -0.6301702261 0 0 0
          0.12341699004 -0.097999848425 -0.6301702261 -0.6415245533 -0.039549808949 -0.30289936066
          0 0 0 -0.039221011102 -0.28944373131 -0.65530896187
          2.6456618309 0.088633649051 -0.20335647464 0 0 0
          2.6456618309 0.12481855601 -0.2395413816 0.9619255662 0.07288004458 -0.30645337701
          0 0 0 0.9619255662 0.07288004458 -0.30645337701
          -0.057891409844 -0.11139335483 -0.22832931578 0 0 0
          0.032298259437 -0.14996410906 -0.27994823456 -1.5176678896 -0.12305271626 -0.19828148186
          0 0 0 -0.04091322422 -0.2804209888 -1.5176678896
          2.2073278427 0.090087801218 0.37745288014 0 0 0
          2.2073278427 0.40902605653 0.058514624834 0.99269473553 0.00056699477136 0.66843271255
          0 0 0 0.99269473553 0.66843271255 0.00056699477136
          0.00010441243649 -0.16134771705 0.59082305431 0 0 0
          0.59082305431 0.052817653865 -0.2140609622 -1.4876484871 -0.11207604408 0.21537593007
          0 0 0 0.22129954398 -0.11799965799 -1.4876484871
          0.98332393169 -0.018543705344 0.60229164362 0 0 0
          0.98332393169 0.60229164362 -0.018543705344 0.70652449131 -0.096200466156 1.0685529709
          0 0 0 1.0685529709 0.70652449131 -0.096200466156
          0.028063822538 -0.031486809254 1.0302368402 0 0 0
          1.0302368402 0.10364352167 -0.10706651211 -0.74310910702 0.037992477417 0.66350734234
          0 0 0 0.66350734234 0.037992477417 -0.74310910702
          -0.50093150139 -0.15592804551 0.30567875504 0 0 0
          0.30567875504 -0.15592804551 -0.50093150139 -0.055777490139 0.021624417976 0.45919448137
          0 0 0 0.45919448137 0.04323233664 -0.077385403216
          -0.19534735382 0.36108997464 0.42686912417 0 0 0
          0.47925063968 0.30870845914 -0.19534735382 0.18375785649 0.22111865878 0.35613203049
          0 0 0 0.4196498096 0.26574614644 0.075612589717
          -1.40738976 -0.066262289882 -0.38788315654 0 0 0
          -0.066262289882 -0.38788315654 -1.40738976 -0.68707841635 0.23118543625 -0.88917219639
          0 0 0 0.23118543625 -0.68707841635 -0.88917219639
          -0.55124163628 0.60902792215 -0.84120869637 0 0 0
          0.60902792215 -0.55124163628 -0.84120869637 0.54200583696 0.36294415593 -0.40087339282
          0 0 0 0.67975282669 0.22519721091 -0.40087339282
          -1.1722891331 0.12354467064 -1.0086343288 0 0 0
          0.12354467064 -1.0005147457 -1.1804087162 -0.91442656517 0.50886237621 -2.0621964931
          0 0 0 0.50886237621 -0.91442656517 -2.0621964931
          -0.80331850052 0.71522146463 -1.8294661045 0 0 0
          0.71522146463 -0.80331850052 -1.8294661045 -0.13668331504 0.37742948532 -0.83705580235
          0 0 0 0.37742948532 -0.13668331504 -0.83705580235
          0.053652241826 0.31657361984 -1.2278723717 0 0 0
          0.33292850852 0.037297345698 -1.2278723717 -0.80994737148 0.63919359446 -2.3727698326
          0 0 0 0.63919359446 -0.80994737148 -2.3727698326
          -1.2838765383 0.5675765872 -2.1700718403 0 0 0
          0.5675765872 -1.2838765383 -2.1700718403 -1.6073940992 0.20143638551 -1.0427302122
          0 0 0 0.20143638551 -1.0427302122 -1.6073940992
          1.3676507473 0.29853591323 -0.91211628914 0 0 0
          1.3676507473 0.29853591323 -0.91211628914 -0.44259917736 0.46924680471 -1.7962474823
          0 0 0 0.46924680471 -0.44259917736 -1.7962474823
          -1.3328866959 0.25234735012 -1.4726413488 0 0 0
          0.25234735012 -1.3328866959 -1.4726413488 -2.2960059643 0.043742537498 -0.5828742981
          0 0 0 0.043742537498 -0.5828742981 -2.2960059643
          1.7423303127 -0.014636676759 -0.30128246546 0 0 0
          1.7423303127 -0.0091622285545 -0.30675691366 0.053180471063 -0.070493146777 -0.75274282694
          0 0 0 0.14038464427 -0.15769731998 -0.75274282694
          -0.9126419425 -0.27690219879 -0.40848839283 0 0 0
          -0.2468020916 -0.43858850002 -0.9126419425 -1.7638483047 -0.15844716132 0.054646775126
          0 0 0 0.054646775126 -0.15844716132 -1.7638483047
          0.85364454985 -0.44586032629 0.025325043127 0 0 0
          0.85364454985 0.025325043127 -0.44586032629 0.070134498179 -1.1638541222 -0.17487505078
          0 0 0 0.070134498179 -0.17487505078 -1.1638541222
          -0.29565158486 -1.2963484526 0.10508917272 0 0 0
          0.10508917272 -0.29565158486 -1.2963484526 -0.55572116375 -0.50696951151 0.25415301323
          0 0 0 0.25415301323 -0.43662190437 -0.62606877089
        </DataArray>
      </CellData>
      <Points>
        <DataArray type="Float32" Name="Points" NumberOfComponents="3" format="ascii" RangeMin="0" RangeMax="5.0658867872">
          0 0 0 5.0654015541 0.070114448667 0
          4.9001340866 1.023067832 0 0 1 0
          0.2423761487 -0.0034630654845 0 0.4837475121 -0.0059074535966 0
          0.72406125069 -0.0067326240242 0 0.96641814709 -0.0074381241575 0
          1.212901473 -0.0080260094255 0 1.4607437849 -0.00076308834832 0
          1.7051483393 0.011902689002 0 1.9482945204 0.0069082612172 0
          2.2002830505 -0.016505952924 0 2.4707903862 -0.040090229362 0
          2.7546224594 -0.046542577446 0 3.0315647125 -0.023433281109 0
          3.2905991077 0.012552035041 0 3.5314340591 0.036384481937 0
          3.7619993687 0.032591883093 0 3.9992570877 0.0077268141322 0
          4.2546777725 -0.017913661897 0 4.5275754929 -0.017874183133 0
          4.8032279015 0.016038747504 0 5.0089850426 0.313593328 0
          4.9560070038 0.54727947712 0 4.9224004745 0.77975904942 0
          4.6570072174 1.0015138388 0 4.4272227287 0.99126309156 0
          4.2039232254 1.0041704178 0 3.9696099758 1.0329577923 0
          3.7159752846 1.0518957376 0 3.4530963898 1.0469201803 0
          3.1976382732 1.0126036406 0 2.9573731422 0.97019958496 0
          2.7287447453 0.9488620162 0 2.5011999607 0.95408028364 0
          2.2605195045 0.97333860397 0 2.006172657 0.9922631979 0
          1.7455182076 1.0058188438 0 1.4832500219 1.0050418377 0
          1.2282534838 0.99891155958 0 0.98003637791 0.99905246496 0
          0.73370248079 1.0015616417 0 0.48967960477 1.0023790598 0
          0.24571503699 1.0018464327 0 0 0.75 0
          0 0.5 0 0 0.25 0
          0.24391919374 0.24834381044 0 0.24491779506 0.49961191416 0
          0.24582715333 0.750623703 0 0.48540848494 0.2462939471 0
          0.48758038878 0.49826568365 0 0.48887458444 0.75029188395 0
          0.72611373663 0.24552217126 0 0.72951930761 0.497836411 0
          0.7316327095 0.74998301268 0 0.96883410215 0.24507679045 0
          0.97371375561 0.49782329798 0 0.97768014669 0.74878150225 0
          1.2132233381 0.24426619709 0 1.2193908691 0.49806109071 0
          1.2278134823 0.74935722351 0 1.458032608 0.25111159682 0
          1.466910243 0.50433260202 0 1.4804105759 0.75626993179 0
          1.7064011097 0.26253849268 0 1.7190569639 0.51016360521 0
          1.7353029251 0.75764274597 0 1.9604114294 0.2545067668 0
          1.9756850004 0.49894523621 0 1.9909604788 0.74482780695 0
          2.220083952 0.22919420898 0 2.2322976589 0.47476235032 0
          2.2432589531 0.72339874506 0 2.483025074 0.20482161641 0
          2.4869670868 0.45280057192 0 2.4912438393 0.70185172558 0
          2.7462716103 0.19826720655 0 2.7406551838 0.44728061557 0
          2.7370166779 0.69649028778 0 3.008535862 0.22347091138 0
          2.9962024689 0.47001409531 0 2.9821949005 0.71790879965 0
          3.2672302723 0.26090368629 0 3.2506182194 0.50946450233 0
          3.2284243107 0.76087886095 0 3.5181057453 0.28748223186 0
          3.4986448288 0.53955936432 0 3.4752721786 0.79550141096 0
          3.7625818253 0.2866191566 0 3.7408018112 0.54177260399 0
          3.7204909325 0.79923284054 0 4.0037331581 0.26117572188 0
          3.9809582233 0.51925599575 0 3.9627103806 0.778234303 0
          4.2478551865 0.23407763243 0 4.2194342613 0.49110129476 0
          4.1986484528 0.74806797504 0 4.4981608391 0.2293561548 0
          4.4590811729 0.48273870349 0 4.4339513779 0.73628008366 0
          4.7538399696 0.26072922349 0 4.7046718597 0.50584310293 0
          4.673224926 0.75142705441 0
        </DataArray>
      </Points>
      <Verts>
        <DataArray type="Int64" Name="connectivity" format="ascii" RangeMin="1e+299" RangeMax="-1e+299">
        </DataArray>
        <DataArray type="Int64" Name="offsets" format="ascii" RangeMin="1e+299" RangeMax="-1e+299">
        </DataArray>
      </Verts>
      <Lines>
        <DataArray type="Int64" Name="connectivity" format="ascii" RangeMin="1e+299" RangeMax="-1e+299">
        </DataArray>
        <DataArray type="Int64" Name="offsets" format="ascii" RangeMin="1e+299" RangeMax="-1e+299">
        </DataArray>
      </Lines>
      <Strips>
        <DataArray type="Int64" Name="connectivity" format="ascii" RangeMin="1e+299" RangeMax="-1e+299">
        </DataArray>
        <DataArray type="Int64" Name="offsets" format="ascii" RangeMin="1e+299" RangeMax="-1e+299">
        </DataArray>
      </Strips>
      <Polys>
        <DataArray type="Int64" Name="connectivity" format="ascii" RangeMin="0" RangeMax="104">
          0 4 48 47 47 48
          49 46 46 49 50 45
          45 50 44 3 4 5
          51 48 48 51 52 49
          49 52 53 50 50 53
          43 44 5 6 54 51
          51 54 55 52 52 55
          56 53 53 56 42 43
          6 7 57 54 54 57
          58 55 55 58 59 56
          56 59 41 42 7 8
          60 57 57 60 61 58
          58 61 62 59 59 62
          40 41 8 9 63 60
          60 63 64 61 61 64
          65 62 62 65 39 40
          9 10 66 63 63 66
          67 64 64 67 68 65
          65 68 38 39 10 11
          69 66 66 69 70 67
          67 70 71 68 68 71
          37 38 11 12 72 69
          69 72 73 70 70 73
          74 71 71 74 36 37
          12 13 75 72 72 75
          76 73 73 76 77 74
          74 77 35 36 13 14
          78 75 75 78 79 76
          76 79 80 77 77 80
          34 35 14 15 81 78
          78 81 82 79 79 82
          83 80 80 83 33 34
          15 16 84 81 81 84
          85 82 82 85 86 83
          83 86 32 33 16 17
          87 84 84 87 88 85
          85 88 89 86 86 89
          31 32 17 18 90 87
          87 90 91 88 88 91
          92 89 89 92 30 31
          18 19 93 90 90 93
          94 91 91 94 95 92
          92 95 29 30 19 20
          96 93 93 96 97 94
          94 97 98 95 95 98
          28 29 20 21 99 96
          96 99 100 97 97 100
          101 98 98 101 27 28
          21 22 102 99 99 102
          103 100 100 103 104 101
          101 104 26 27 22 1
          23 102 102 23 24 103
          103 24 25 104 104 25
          2 26
        </DataArray>
        <DataArray type="Int64" Name="offsets" format="ascii" RangeMin="4" RangeMax="320">
          4 8 12 16 20 24
          28 32 36 40 44 48
          52 56 60 64 68 72
          76 80 84 88 92 96
          100 104 108 112 116 120
          124 128 132 136 140 144
          148 152 156 160 164 168
          172 176 180 184 188 192
          196 200 204 208 212 216
          220 224 228 232 236 240
          244 248 252 256 260 264
          268 272 276 280 284 288
          292 296 300 304 308 312
          316 320
        </DataArray>
      </Polys>
    </Piece>
  </PolyData>
</VTKFile>
