<?xml version="1.0"?>
<VTKFile type="UnstructuredGrid" version="0.1" byte_order="BigEndian">
  <UnstructuredGrid>
    <Piece NumberOfPoints="105" NumberOfCells="80">
      <PointData Scalars="scalars">
        <DataArray type="Int32" Name="NodeTag" format="ascii">
          1
          2
          3
          4
          5
          6
          7
          8
          9
          10
          11
          12
          13
          14
          15
          16
          17
          18
          19
          20
          21
          22
          23
          24
          25
          26
          27
          28
          29
          30
          31
          32
          33
          34
          35
          36
          37
          38
          39
          40
          41
          42
          43
          44
          45
          46
          47
          48
          49
          50
          51
          52
          53
          54
          55
          56
          57
          58
          59
          60
          61
          62
          63
          64
          65
          66
          67
          68
          69
          70
          71
          72
          73
          74
          75
          76
          77
          78
          79
          80
          81
          82
          83
          84
          85
          86
          87
          88
          89
          90
          91
          92
          93
          94
          95
          96
          97
          98
          99
          100
          101
          102
          103
          104
          105
        </DataArray>
        <DataArray type="Float32" Name="Displacement" NumberOfComponents="3" format="ascii">
           0.0000000000E+00  0.0000000000E+00  0.0000000000E+00
           1.7493882594E-03  1.8754536013E-03  0.0000000000E+00
          -2.6712576486E-03  6.1702843590E-04  0.0000000000E+00
           0.0000000000E+00  0.0000000000E+00  0.0000000000E+00
          -2.0392550592E-04 -9.2631537248E-05  0.0000000000E+00
          -4.3472801926E-04 -1.5801517342E-04  0.0000000000E+00
          -6.9382083627E-04 -1.8008727324E-04  0.0000000000E+00
          -8.9826145058E-04 -1.9895757253E-04  0.0000000000E+00
          -9.9232613661E-04 -2.1468291899E-04  0.0000000000E+00
          -1.0500420195E-03 -2.0411406052E-05  0.0000000000E+00
          -1.1997092618E-03  3.1837836302E-04  0.0000000000E+00
          -1.3830387650E-03  1.8478474705E-04  0.0000000000E+00
          -1.3298473960E-03 -4.4150807652E-04  0.0000000000E+00
          -7.8131132341E-04 -1.0723458623E-03  0.0000000000E+00
           1.2364271415E-04 -1.2449416497E-03  0.0000000000E+00
           8.4430424152E-04 -6.2680271502E-04  0.0000000000E+00
           1.0859618401E-03  3.3574738216E-04  0.0000000000E+00
           8.4081083059E-04  9.7322687462E-04  0.0000000000E+00
           3.2096503715E-04  8.7178087801E-04  0.0000000000E+00
          -1.9870577336E-05  2.0667953544E-04  0.0000000000E+00
           1.2512759700E-04 -4.7916182360E-04  0.0000000000E+00
           7.3759993022E-04 -4.7810602565E-04  0.0000000000E+00
           1.4237560797E-03  4.2901116276E-04  0.0000000000E+00
           2.4033934698E-04  1.7010240847E-03  0.0000000000E+00
          -1.1767396963E-03  1.2646544195E-03  0.0000000000E+00
          -2.0756662111E-03  7.9600733921E-04  0.0000000000E+00
          -2.4874053791E-03  4.0492036326E-05  0.0000000000E+00
          -1.9466787312E-03 -2.3369937213E-04  0.0000000000E+00
          -1.2324811703E-03  1.1155130915E-04  0.0000000000E+00
          -8.1288554057E-04  8.8156877886E-04  0.0000000000E+00
          -9.1010575965E-04  1.3881255843E-03  0.0000000000E+00
          -1.2546045282E-03  1.2550363537E-03  0.0000000000E+00
          -1.4005881985E-03  3.3712812160E-04  0.0000000000E+00
          -1.1402003577E-03 -7.9711430956E-04  0.0000000000E+00
          -5.6854649823E-04 -1.3678565977E-03  0.0000000000E+00
           3.2095995110E-05 -1.2282818254E-03  0.0000000000E+00
           2.8137877678E-04 -7.1315020242E-04  0.0000000000E+00
           1.6510840746E-04 -2.0694727957E-04  0.0000000000E+00
          -1.1987951448E-04  1.5564568896E-04  0.0000000000E+00
          -4.4803403001E-04  1.3486238553E-04  0.0000000000E+00
          -5.8168416899E-04 -2.9113530200E-05  0.0000000000E+00
          -5.3399607068E-04 -2.5345416903E-05  0.0000000000E+00
          -4.3593177153E-04  4.1772048564E-05  0.0000000000E+00
          -2.7605372574E-04  6.3635424367E-05  0.0000000000E+00
          -1.1461567946E-04  4.9390255885E-05  0.0000000000E+00
           0.0000000000E+00  0.0000000000E+00  0.0000000000E+00
           0.0000000000E+00  0.0000000000E+00  0.0000000000E+00
           0.0000000000E+00  0.0000000000E+00  0.0000000000E+00
          -1.6265161172E-04 -4.4300537236E-05  0.0000000000E+00
          -1.3594098659E-04 -1.0380664505E-05  0.0000000000E+00
          -1.1161732829E-04  1.6682759479E-05  0.0000000000E+00
          -3.9030023381E-04 -9.9130873524E-05  0.0000000000E+00
          -3.3220455668E-04 -4.6390181954E-05  0.0000000000E+00
          -2.9758699559E-04  7.8068746596E-06  0.0000000000E+00
          -6.3891930177E-04 -1.1977529205E-04  0.0000000000E+00
          -5.4782579597E-04 -5.7872517936E-05  0.0000000000E+00
          -4.9129479808E-04 -4.5367130026E-07  0.0000000000E+00
          -8.3363827842E-04 -1.3168762182E-04  0.0000000000E+00
          -7.0311634108E-04 -5.8223578977E-05  0.0000000000E+00
          -5.9702140476E-04 -3.2592771221E-05  0.0000000000E+00
          -9.8371614380E-04 -1.5336962347E-04  0.0000000000E+00
          -8.1874724258E-04 -5.1862643249E-05  0.0000000000E+00
          -5.9345403055E-04 -1.7192859224E-05  0.0000000000E+00
          -1.1225643062E-03  2.9733817352E-05  0.0000000000E+00
          -8.8509789546E-04  1.1588999358E-04  0.0000000000E+00
          -5.2398716279E-04  1.6770994109E-04  0.0000000000E+00
          -1.1662018984E-03  3.3538497091E-04  0.0000000000E+00
          -8.2767784767E-04  2.7185990132E-04  0.0000000000E+00
          -3.9312354726E-04  2.0443102491E-04  0.0000000000E+00
          -1.0589258628E-03  1.2054883885E-04  0.0000000000E+00
          -6.5038863858E-04 -2.8213279569E-05  0.0000000000E+00
          -2.4179422749E-04 -1.3834773448E-04  0.0000000000E+00
          -8.0020716466E-04 -5.5652184775E-04  0.0000000000E+00
          -4.7351023916E-04 -6.7506720555E-04  0.0000000000E+00
          -1.8031162529E-04 -7.1154121301E-04  0.0000000000E+00
          -4.5405459657E-04 -1.2084518999E-03  0.0000000000E+00
          -3.4860707936E-04 -1.2625138910E-03  0.0000000000E+00
          -2.3421464869E-04 -1.2878898511E-03  0.0000000000E+00
          -9.9727020247E-05 -1.3837708726E-03  0.0000000000E+00
          -2.4995599318E-04 -1.4101575277E-03  0.0000000000E+00
          -3.4728640765E-04 -1.4313034097E-03  0.0000000000E+00
           2.2831831197E-04 -7.0961069758E-04  0.0000000000E+00
          -1.0157587222E-04 -8.0207525885E-04  0.0000000000E+00
          -4.7625468443E-04 -8.5838881070E-04  0.0000000000E+00
           4.6088143905E-04  2.9165551564E-04  0.0000000000E+00
           1.6536800514E-05  2.5316091786E-04  0.0000000000E+00
          -5.7711830599E-04  2.9099314188E-04  0.0000000000E+00
           4.8429669246E-04  1.0025850610E-03  0.0000000000E+00
          -3.6246579116E-05  1.0581526788E-03  0.0000000000E+00
          -6.6143245100E-04  1.2170853161E-03  0.0000000000E+00
           3.3654686784E-04  9.7950356340E-04  0.0000000000E+00
          -2.4603665153E-04  1.1173543701E-03  0.0000000000E+00
          -7.8932171064E-04  1.3169041281E-03  0.0000000000E+00
           9.9858340281E-05  2.9893298798E-04  0.0000000000E+00
          -5.0933636336E-04  5.1506731493E-04  0.0000000000E+00
          -9.9744145401E-04  7.5522208073E-04  0.0000000000E+00
          -5.7375592203E-05 -4.2589820576E-04  0.0000000000E+00
          -8.1758039914E-04 -2.3802593212E-04  0.0000000000E+00
          -1.3735673601E-03 -5.1678753231E-05  0.0000000000E+00
          -4.9199896474E-05 -5.5219048896E-04  0.0000000000E+00
          -1.0945133090E-03 -4.6171240424E-04  0.0000000000E+00
          -1.7667017780E-03 -3.6698644552E-04  0.0000000000E+00
           1.0271890441E-04  2.8699038303E-04  0.0000000000E+00
          -1.2124463056E-03  1.5629393523E-04  0.0000000000E+00
          -2.0536086591E-03  3.8171953690E-05  0.0000000000E+00
        </DataArray>
      </PointData>
      <CellData Scalars="scalars">
        <DataArray type="Int32" Name="EleTag" Format="ascii">
          1 
          2 
          3 
          4 
          5 
          6 
          7 
          8 
          9 
          10 
          11 
          12 
          13 
          14 
          15 
          16 
          17 
          18 
          19 
          20 
          21 
          22 
          23 
          24 
          25 
          26 
          27 
          28 
          29 
          30 
          31 
          32 
          33 
          34 
          35 
          36 
          37 
          38 
          39 
          40 
          41 
          42 
          43 
          44 
          45 
          46 
          47 
          48 
          49 
          50 
          51 
          52 
          53 
          54 
          55 
          56 
          57 
          58 
          59 
          60 
          61 
          62 
          63 
          64 
          65 
          66 
          67 
          68 
          69 
          70 
          71 
          72 
          73 
          74 
          75 
          76 
          77 
          78 
          79 
          80 
        </DataArray>
      </CellData>
      <Points>
        <DataArray type="Float32" NumberOfComponents="3" Format="ascii">
           0.0000000000E+00  0.0000000000E+00  0.0000000000E+00
           5.0000000000E+00  0.0000000000E+00  0.0000000000E+00
           5.0000000000E+00  1.0000000000E+00  0.0000000000E+00
           0.0000000000E+00  1.0000000000E+00  0.0000000000E+00
           2.5000000000E-01  0.0000000000E+00  0.0000000000E+00
           5.0000000000E-01  0.0000000000E+00  0.0000000000E+00
           7.5000000000E-01  0.0000000000E+00  0.0000000000E+00
           1.0000000000E+00  0.0000000000E+00  0.0000000000E+00
           1.2500000000E+00  0.0000000000E+00  0.0000000000E+00
           1.5000000000E+00  0.0000000000E+00  0.0000000000E+00
           1.7500000000E+00  0.0000000000E+00  0.0000000000E+00
           2.0000000000E+00  0.0000000000E+00  0.0000000000E+00
           2.2500000000E+00  0.0000000000E+00  0.0000000000E+00
           2.5000000000E+00  0.0000000000E+00  0.0000000000E+00
           2.7500000000E+00  0.0000000000E+00  0.0000000000E+00
           3.0000000000E+00  0.0000000000E+00  0.0000000000E+00
           3.2500000000E+00  0.0000000000E+00  0.0000000000E+00
           3.5000000000E+00  0.0000000000E+00  0.0000000000E+00
           3.7500000000E+00  0.0000000000E+00  0.0000000000E+00
           4.0000000000E+00  0.0000000000E+00  0.0000000000E+00
           4.2500000000E+00  0.0000000000E+00  0.0000000000E+00
           4.5000000000E+00  0.0000000000E+00  0.0000000000E+00
           4.7500000000E+00  0.0000000000E+00  0.0000000000E+00
           5.0000000000E+00  2.5000000000E-01  0.0000000000E+00
           5.0000000000E+00  5.0000000000E-01  0.0000000000E+00
           5.0000000000E+00  7.5000000000E-01  0.0000000000E+00
           4.7500000000E+00  1.0000000000E+00  0.0000000000E+00
           4.5000000000E+00  1.0000000000E+00  0.0000000000E+00
           4.2500000000E+00  1.0000000000E+00  0.0000000000E+00
           4.0000000000E+00  1.0000000000E+00  0.0000000000E+00
           3.7500000000E+00  1.0000000000E+00  0.0000000000E+00
           3.5000000000E+00  1.0000000000E+00  0.0000000000E+00
           3.2500000000E+00  1.0000000000E+00  0.0000000000E+00
           3.0000000000E+00  1.0000000000E+00  0.0000000000E+00
           2.7500000000E+00  1.0000000000E+00  0.0000000000E+00
           2.5000000000E+00  1.0000000000E+00  0.0000000000E+00
           2.2500000000E+00  1.0000000000E+00  0.0000000000E+00
           2.0000000000E+00  1.0000000000E+00  0.0000000000E+00
           1.7500000000E+00  1.0000000000E+00  0.0000000000E+00
           1.5000000000E+00  1.0000000000E+00  0.0000000000E+00
           1.2500000000E+00  1.0000000000E+00  0.0000000000E+00
           1.0000000000E+00  1.0000000000E+00  0.0000000000E+00
           7.5000000000E-01  1.0000000000E+00  0.0000000000E+00
           5.0000000000E-01  1.0000000000E+00  0.0000000000E+00
           2.5000000000E-01  1.0000000000E+00  0.0000000000E+00
           0.0000000000E+00  7.5000000000E-01  0.0000000000E+00
           0.0000000000E+00  5.0000000000E-01  0.0000000000E+00
           0.0000000000E+00  2.5000000000E-01  0.0000000000E+00
           2.5000000000E-01  2.5000000000E-01  0.0000000000E+00
           2.5000000000E-01  5.0000000000E-01  0.0000000000E+00
           2.5000000000E-01  7.5000000000E-01  0.0000000000E+00
           5.0000000000E-01  2.5000000000E-01  0.0000000000E+00
           5.0000000000E-01  5.0000000000E-01  0.0000000000E+00
           5.0000000000E-01  7.5000000000E-01  0.0000000000E+00
           7.5000000000E-01  2.5000000000E-01  0.0000000000E+00
           7.5000000000E-01  5.0000000000E-01  0.0000000000E+00
           7.5000000000E-01  7.5000000000E-01  0.0000000000E+00
           1.0000000000E+00  2.5000000000E-01  0.0000000000E+00
           1.0000000000E+00  5.0000000000E-01  0.0000000000E+00
           1.0000000000E+00  7.5000000000E-01  0.0000000000E+00
           1.2500000000E+00  2.5000000000E-01  0.0000000000E+00
           1.2500000000E+00  5.0000000000E-01  0.0000000000E+00
           1.2500000000E+00  7.5000000000E-01  0.0000000000E+00
           1.5000000000E+00  2.5000000000E-01  0.0000000000E+00
           1.5000000000E+00  5.0000000000E-01  0.0000000000E+00
           1.5000000000E+00  7.5000000000E-01  0.0000000000E+00
           1.7500000000E+00  2.5000000000E-01  0.0000000000E+00
           1.7500000000E+00  5.0000000000E-01  0.0000000000E+00
           1.7500000000E+00  7.5000000000E-01  0.0000000000E+00
           2.0000000000E+00  2.5000000000E-01  0.0000000000E+00
           2.0000000000E+00  5.0000000000E-01  0.0000000000E+00
           2.0000000000E+00  7.5000000000E-01  0.0000000000E+00
           2.2500000000E+00  2.5000000000E-01  0.0000000000E+00
           2.2500000000E+00  5.0000000000E-01  0.0000000000E+00
           2.2500000000E+00  7.5000000000E-01  0.0000000000E+00
           2.5000000000E+00  2.5000000000E-01  0.0000000000E+00
           2.5000000000E+00  5.0000000000E-01  0.0000000000E+00
           2.5000000000E+00  7.5000000000E-01  0.0000000000E+00
           2.7500000000E+00  2.5000000000E-01  0.0000000000E+00
           2.7500000000E+00  5.0000000000E-01  0.0000000000E+00
           2.7500000000E+00  7.5000000000E-01  0.0000000000E+00
           3.0000000000E+00  2.5000000000E-01  0.0000000000E+00
           3.0000000000E+00  5.0000000000E-01  0.0000000000E+00
           3.0000000000E+00  7.5000000000E-01  0.0000000000E+00
           3.2500000000E+00  2.5000000000E-01  0.0000000000E+00
           3.2500000000E+00  5.0000000000E-01  0.0000000000E+00
           3.2500000000E+00  7.5000000000E-01  0.0000000000E+00
           3.5000000000E+00  2.5000000000E-01  0.0000000000E+00
           3.5000000000E+00  5.0000000000E-01  0.0000000000E+00
           3.5000000000E+00  7.5000000000E-01  0.0000000000E+00
           3.7500000000E+00  2.5000000000E-01  0.0000000000E+00
           3.7500000000E+00  5.0000000000E-01  0.0000000000E+00
           3.7500000000E+00  7.5000000000E-01  0.0000000000E+00
           4.0000000000E+00  2.5000000000E-01  0.0000000000E+00
           4.0000000000E+00  5.0000000000E-01  0.0000000000E+00
           4.0000000000E+00  7.5000000000E-01  0.0000000000E+00
           4.2500000000E+00  2.5000000000E-01  0.0000000000E+00
           4.2500000000E+00  5.0000000000E-01  0.0000000000E+00
           4.2500000000E+00  7.5000000000E-01  0.0000000000E+00
           4.5000000000E+00  2.5000000000E-01  0.0000000000E+00
           4.5000000000E+00  5.0000000000E-01  0.0000000000E+00
           4.5000000000E+00  7.5000000000E-01  0.0000000000E+00
           4.7500000000E+00  2.5000000000E-01  0.0000000000E+00
           4.7500000000E+00  5.0000000000E-01  0.0000000000E+00
           4.7500000000E+00  7.5000000000E-01  0.0000000000E+00
        </DataArray>
      </Points>
      <Cells>
        <DataArray type="Int32" Name="connectivity" Format="ascii">
          0 47 48 4 
          47 46 49 48 
          46 45 50 49 
          45 3 44 50 
          4 48 51 5 
          48 49 52 51 
          49 50 53 52 
          50 44 43 53 
          5 51 54 6 
          51 52 55 54 
          52 53 56 55 
          53 43 42 56 
          6 54 57 7 
          54 55 58 57 
          55 56 59 58 
          56 42 41 59 
          7 57 60 8 
          57 58 61 60 
          58 59 62 61 
          59 41 40 62 
          8 60 63 9 
          60 61 64 63 
          61 62 65 64 
          62 40 39 65 
          9 63 66 10 
          63 64 67 66 
          64 65 68 67 
          65 39 38 68 
          10 66 69 11 
          66 67 70 69 
          67 68 71 70 
          68 38 37 71 
          11 69 72 12 
          69 70 73 72 
          70 71 74 73 
          71 37 36 74 
          12 72 75 13 
          72 73 76 75 
          73 74 77 76 
          74 36 35 77 
          13 75 78 14 
          75 76 79 78 
          76 77 80 79 
          77 35 34 80 
          14 78 81 15 
          78 79 82 81 
          79 80 83 82 
          80 34 33 83 
          15 81 84 16 
          81 82 85 84 
          82 83 86 85 
          83 33 32 86 
          16 84 87 17 
          84 85 88 87 
          85 86 89 88 
          86 32 31 89 
          17 87 90 18 
          87 88 91 90 
          88 89 92 91 
          89 31 30 92 
          18 90 93 19 
          90 91 94 93 
          91 92 95 94 
          92 30 29 95 
          19 93 96 20 
          93 94 97 96 
          94 95 98 97 
          95 29 28 98 
          20 96 99 21 
          96 97 100 99 
          97 98 101 100 
          98 28 27 101 
          21 99 102 22 
          99 100 103 102 
          100 101 104 103 
          101 27 26 104 
          22 102 23 1 
          102 103 24 23 
          103 104 25 24 
          104 26 2 25 
        </DataArray>
        <DataArray type="Int32" Name="offsets" Format="ascii">
          4 
          8 
          12 
          16 
          20 
          24 
          28 
          32 
          36 
          40 
          44 
          48 
          52 
          56 
          60 
          64 
          68 
          72 
          76 
          80 
          84 
          88 
          92 
          96 
          100 
          104 
          108 
          112 
          116 
          120 
          124 
          128 
          132 
          136 
          140 
          144 
          148 
          152 
          156 
          160 
          164 
          168 
          172 
          176 
          180 
          184 
          188 
          192 
          196 
          200 
          204 
          208 
          212 
          216 
          220 
          224 
          228 
          232 
          236 
          240 
          244 
          248 
          252 
          256 
          260 
          264 
          268 
          272 
          276 
          280 
          284 
          288 
          292 
          296 
          300 
          304 
          308 
          312 
          316 
          320 
        </DataArray>
        <DataArray type="Int32" Name="types" Format="ascii">
          9 
          9 
          9 
          9 
          9 
          9 
          9 
          9 
          9 
          9 
          9 
          9 
          9 
          9 
          9 
          9 
          9 
          9 
          9 
          9 
          9 
          9 
          9 
          9 
          9 
          9 
          9 
          9 
          9 
          9 
          9 
          9 
          9 
          9 
          9 
          9 
          9 
          9 
          9 
          9 
          9 
          9 
          9 
          9 
          9 
          9 
          9 
          9 
          9 
          9 
          9 
          9 
          9 
          9 
          9 
          9 
          9 
          9 
          9 
          9 
          9 
          9 
          9 
          9 
          9 
          9 
          9 
          9 
          9 
          9 
          9 
          9 
          9 
          9 
          9 
          9 
          9 
          9 
          9 
          9 
        </DataArray>
      </Cells>
    </Piece>
  </UnstructuredGrid>
</VTKFile>
